# vtk DataFile Version 4.2
NetFlowV2 export
ASCII
DATASET POLYDATA
POINTS 2947 float
1460 1737.5 181.9
1448.6 1734 175.1
1438.1 1730.1 168.3
1428.4 1725.6 161.5
1419.6 1720.8 154.7
1411.8 1715.4 147.9
1404.8 1709.6 141
1398.7 1703.3 134.2
1393.5 1696.6 127.4
1389.1 1689.4 120.6
1385.7 1681.7 113.8
1383.2 1673.6 107
1381.5 1665 100.2
1380.7 1655.9 93.3
1380.9 1646.4 86.5
1381.9 1636.4 79.7
1383.8 1626 72.9
1386.6 1615 66.1
1390.3 1603.7 59.3
1458.4 1753.3 177.8
1455.2 1766.9 173.7
1450.6 1778.4 169.5
1444.3 1787.6 165.4
1436.6 1794.7 161.3
1427.3 1799.7 157.2
1416.5 1802.4 153
1404.1 1802.9 148.9
1390.2 1801.3 144.8
1374.8 1797.6 140.7
1450.1 1724.4 186.6
1442 1711.7 191.3
1435.8 1699.5 196
1431.5 1687.7 200.7
1429.1 1676.4 205.3
1428.7 1665.6 210
1430.2 1655.2 214.7
1433.5 1645.2 219.4
1438.8 1635.7 224.1
1446 1626.7 228.8
1455.2 1618.1 233.5
1466.2 1610 238.1
1479.1 1602.3 242.8
1493.9 1595.1 247.5
1475.9 1738.3 178.7
1490.6 1739.9 175.5
1504.1 1742.4 172.3
1516.4 1745.7 169.1
1527.5 1749.8 166
1537.5 1754.9 162.8
1546.2 1760.7 159.6
1553.8 1767.5 156.4
1560.2 1775.1 153.2
1565.4 1783.5 150
1569.4 1792.8 146.8
1572.3 1803 143.6
1573.9 1814 140.4
1574.4 1825.9 137.2
1573.7 1838.6 134
1571.8 1852.2 130.8
1568.7 1866.6 127.6
1564.5 1881.9 124.4
626.4 665.1 194.3
615.9 658.4 191.5
611.2 650.5 188.6
612.4 641.3 185.7
619.4 631.1 182.9
640 674.7 198.6
651.8 684.5 202.8
661.6 694.4 207.1
669.5 704.5 211.3
675.4 714.9 215.5
679.4 725.4 219.8
681.4 736.1 224
681.5 747 228.3
679.6 758 232.5
675.8 769.3 236.8
670 780.8 241
662.3 792.4 245.2
652.6 804.3 249.5
641 816.3 253.7
959.4 227.5 1.5
957.5 215 8.8
957.1 203.8 16.1
958.4 193.8 23.4
961.4 185.2 30.7
966 178 38
972.1 172 45.2
980 167.4 52.5
989.4 164.1 59.8
1000.5 162.2 67.1
1013.2 161.5 74.4
1179.9 1528.4 36.4
1184.4 1527.4 43.1
1187.8 1528.2 49.9
1190.2 1530.8 56.7
1191.5 1535.2 63.5
1090.3 394.4 278.9
1078.7 401.2 271.3
1067.7 406.2 263.7
1057.3 409.5 256.1
1047.4 411 248.5
1038.1 410.8 240.9
1029.4 408.9 233.3
1021.2 405.2 225.7
1013.6 399.8 218.1
1006.7 392.7 210.5
1000.3 383.8 202.9
994.4 373.1 195.3
989.2 360.8 187.7
1936.8 1156.6 39
1924 1152.3 42
1913.9 1146.6 44.9
1906.6 1139.4 47.9
1901.9 1130.7 50.9
1900 1120.6 53.8
1900.8 1109 56.8
1904.2 1096 59.7
1939.5 1168.4 47
1940.7 1179 54.9
1940.2 1188.3 62.8
1938 1196.4 70.7
1934.1 1203.2 78.7
1928.7 1208.8 86.6
1921.5 1213.1 94.5
1912.7 1216.2 102.5
1902.2 1218 110.4
1890.1 1218.6 118.3
1380.2 235.7 137.4
1385.6 225.7 129.8
1391.1 216.7 122.2
1396.9 208.7 114.6
1402.9 201.7 107
1409.1 195.7 99.4
1415.4 190.7 91.8
1422 186.8 84.2
1428.8 183.8 76.6
1435.8 181.9 69
1443 180.9 61.4
1450.4 181 53.8
1458 182.1 46.2
1465.9 184.2 38.6
1473.9 187.3 31
1482.1 191.4 23.4
1490.5 196.6 15.8
1499.1 202.7 8.2
1508 209.8 0.6
1373.3 248.8 141.8
1364.5 257.6 146.2
1354 261.9 150.6
1341.6 261.7 155
1327.4 257.2 159.4
616.1 193.1 134.4
632.7 189 134.7
647.9 186.8 135
661.6 186.6 135.2
674 188.2 135.5
684.9 191.8 135.8
694.3 197.4 136.1
702.4 204.8 136.4
709 214.2 136.6
714.2 225.5 136.9
718 238.8 137.2
720.3 254 137.5
721.2 271 137.7
735.7 258.8 138.5
749.8 253 139.3
763.4 253.9 140
776.6 261.4 140.8
789.4 275.3 141.6
801.6 262.7 142.2
813.5 252.9 142.8
825.3 246.1 143.5
836.8 242.4 144.1
848.2 241.6 144.7
859.4 243.8 145.4
870.4 249 146
881.2 257.2 146.6
891.8 268.4 147.3
902.2 282.5 147.9
2064.5 664.1 165.1
2075.5 675.1 162.1
2085.2 685.9 159.2
2093.4 696.7 156.2
2100.3 707.4 153.3
2105.8 718 150.3
2110 728.4 147.3
2112.7 738.8 144.4
2114 749.1 141.4
2114 759.3 138.5
2112.6 769.3 135.5
2109.8 779.3 132.6
2105.6 789.2 129.6
2100 799 126.7
2093 808.7 123.7
2084.7 818.2 120.7
2074.9 827.7 117.8
2063.8 837.1 114.8
2051.4 846.4 111.9
2061.2 677.4 169.4
2057.5 689.8 173.7
2053.2 701.3 178.1
2048.4 711.9 182.4
2043.1 721.6 186.7
2037.3 730.3 191.1
2030.9 738.2 195.4
2024.1 745.1 199.7
2016.7 751.1 204
2008.8 756.2 208.4
2000.4 760.3 212.7
1991.4 763.4 217
1981.9 765.7 221.4
1971.9 767 225.7
1961.4 767.4 230
1950.4 766.9 234.4
1938.9 765.5 238.7
1926.8 763.1 243
1914.3 759.9 247.3
1901.2 755.7 251.7
2048.9 668.5 167.3
2034.1 671.7 169.4
2020.1 674 171.6
2006.8 675.1 173.8
1994.4 675.2 176
1982.8 674.2 178.2
1971.9 672.1 180.4
1961.9 669 182.5
1952.7 664.7 184.7
1944.2 659.4 186.9
1936.7 652.9 189.1
1929.9 645.3 191.3
1924 636.6 193.5
1918.8 626.8 195.6
1914.5 616 197.8
1910.9 604.1 200
1908.2 591.1 202.2
1906.2 577 204.4
1905 561.9 206.6
1904.6 545.7 208.7
477.5 650.7 15.3
463.6 644.1 14
453.4 636.4 12.7
446.8 627.5 11.4
443.7 617.6 10.1
444.2 606.6 8.8
448.4 594.4 7.5
456.1 581.2 6.2
1800.7 1066.8 262.1
1786.3 1058.3 261.2
1775 1049.3 260.4
1766.8 1039.6 259.6
1761.6 1029.5 258.7
1759.7 1018.7 257.9
1760.8 1007.4 257
1765.1 995.5 256.2
1772.4 983 255.3
1782.8 969.9 254.5
423 1224.6 48.1
407.9 1224.1 51.1
393.8 1222.9 54.1
380.6 1220.7 57.1
368.3 1217.7 60.1
357 1213.8 63.1
346.7 1209.1 66.1
337.3 1203.5 69.1
328.8 1197.1 72
321.3 1189.8 75
314.8 1181.6 78
309.2 1172.5 81
304.5 1162.6 84
300.9 1151.9 87
298.1 1140.3 90
296.3 1127.8 93
295.5 1114.4 96
295.6 1100.2 99
296.6 1085.1 102
424.4 1220.3 59.6
426 1216.6 71
427.9 1213.3 82.5
429.9 1210.5 93.9
432.3 1208.1 105.4
434.8 1206.3 116.8
437.6 1204.9 128.2
440.6 1204 139.7
443.9 1203.6 151.1
447.4 1203.7 162.6
451.1 1204.2 174
455.1 1205.2 185.5
459.3 1206.7 196.9
433.3 1212.5 50.1
443.8 1202.3 52
454.5 1193.8 53.9
465.4 1187.1 55.9
476.5 1182.3 57.8
487.8 1179.2 59.7
499.3 1178 61.7
511 1178.5 63.6
522.8 1180.8 65.5
534.9 1184.9 67.4
547.2 1190.9 69.4
559.7 1198.6 71.3
572.4 1208.1 73.2
417.2 1238.9 50.5
411.1 1252.1 53
404.6 1264.2 55.4
397.7 1275.1 57.8
390.5 1284.9 60.2
383 1293.5 62.6
375.1 1301 65
366.9 1307.4 67.5
358.3 1312.6 69.9
349.3 1316.6 72.3
340 1319.5 74.7
330.3 1321.1 77.1
320.3 1321.7 79.5
309.9 1321 81.9
299.1 1319.2 84.4
288 1316.3 86.8
276.6 1312.2 89.2
264.8 1307 91.6
252.7 1300.7 94
240.2 1293.2 96.4
227.3 1284.6 98.9
1098.2 0 136.2
1100.2 10.3 127.3
1100.7 19.4 118.5
1099.6 27.2 109.6
1097 33.8 100.8
1092.7 39.1 91.9
1086.9 43.1 83.1
1079.5 45.9 74.3
1070.6 47.4 65.4
1060.1 47.7 56.6
1773.9 986.1 257.2
1763.3 995.7 259.9
1751.1 998.7 262.5
1737.3 995.1 265.2
1721.9 984.8 267.9
1613.5 1271.9 107.3
1610.9 1259.8 103.1
1610.7 1248.9 98.8
1612.9 1239.2 94.5
1617.4 1230.8 90.3
1624.2 1223.7 86
1633.4 1217.8 81.8
1644.9 1213.1 77.5
954.4 1670.8 144.3
957.6 1667.1 155.4
961.2 1665.3 166.5
965.2 1665.5 177.5
969.6 1667.5 188.6
552.8 609.1 168.8
565.6 602.3 170.8
577.3 598.8 172.8
587.9 598.7 174.8
597.4 601.8 176.8
605.8 608.2 178.9
613.2 618 180.9
544.7 613.5 176.3
537.2 616 183.8
530 616.4 191.3
523.4 614.9 198.9
517.1 611.4 206.4
511.4 605.9 213.9
506.1 598.4 221.4
555.7 604.1 158
558.8 600 147.1
562.1 596.9 136.3
565.6 594.8 125.5
569.2 593.6 114.7
573 593.5 103.8
577 594.3 93
581.2 596.1 82.2
585.5 598.9 71.4
590 602.6 60.6
1086.7 1484.4 128.3
1078.4 1470.2 134.2
1072.4 1456.7 140
1068.4 1444.1 145.8
1066.6 1432.2 151.6
1067.1 1421.2 157.4
1069.7 1411 163.3
1074.4 1401.5 169.1
1081.3 1392.9 174.9
1090.4 1385.2 180.7
1101.7 1378.2 186.5
1115.1 1372 192.4
1130.7 1366.6 198.2
1095.7 1491.3 137
1103.4 1498.4 145.6
1109.7 1505.7 154.3
1114.6 1513.3 162.9
1118 1521.1 171.6
1120.1 1529.1 180.2
1120.8 1537.4 188.9
1120.1 1545.9 197.5
1117.9 1554.6 206.1
1114.4 1563.6 214.8
1109.5 1572.8 223.4
1103.2 1582.3 232.1
1076.8 1491 136.3
1067.2 1496.4 144.3
1057.9 1500.7 152.2
1048.9 1503.7 160.2
1040.1 1505.5 168.1
1031.7 1506.1 176.1
1023.4 1505.5 184
1015.5 1503.7 192
1007.8 1500.7 200
1000.4 1496.5 207.9
993.3 1491.1 215.9
986.4 1484.5 223.8
979.8 1476.7 231.8
973.5 1467.7 239.7
967.5 1457.5 247.7
1101.9 1484.2 125.8
1115.6 1485.6 123.2
1127.6 1488.5 120.6
1137.9 1492.9 118.1
1146.6 1498.9 115.5
1153.6 1506.4 112.9
1158.9 1515.5 110.4
1162.5 1526.1 107.8
1164.5 1538.3 105.2
1164.8 1552 102.7
1163.5 1567.2 100.1
567.1 905.3 123.2
574.2 897.5 114.9
581.2 891.6 106.6
588.2 887.8 98.3
595.2 885.9 89.9
602.1 886 81.6
609 888.1 73.3
615.9 892.3 65
622.7 898.4 56.7
629.4 906.5 48.3
1034 590 121.1
1044.3 580 123.1
1054.7 572.5 125
1065.2 567.4 127
1075.7 564.6 128.9
1086.3 564.3 130.9
1097 566.5 132.8
1107.7 571 134.8
1118.5 578 136.8
1129.4 587.4 138.7
1025.7 602.2 120.9
1017 612.6 120.7
1007.9 621.2 120.6
998.5 628 120.4
988.6 633 120.2
978.4 636.1 120
967.8 637.5 119.8
956.8 636.9 119.6
945.3 634.6 119.5
933.6 630.5 119.3
921.4 624.6 119.1
908.8 616.8 118.9
1047 597.4 121.9
1057.8 605.5 122.8
1066.7 614.3 123.7
1073.3 623.8 124.5
1077.8 633.9 125.4
1080.1 644.8 126.2
1080.4 656.4 127.1
1078.5 668.7 127.9
1074.4 681.6 128.8
1068.3 695.3 129.6
1380.5 1616.5 59.4
1370.7 1628 59.5
1360.8 1638.1 59.6
1350.9 1647 59.7
1341 1654.7 59.8
1331 1661 59.9
1320.9 1665.9 60
1310.9 1669.6 60.1
1300.7 1672 60.2
1290.6 1673 60.3
1280.4 1672.7 60.3
1270.1 1671 60.4
1259.8 1668 60.5
1249.5 1663.7 60.6
1239.1 1658 60.7
1228.7 1651.1 60.8
1218.2 1642.9 60.9
1207.7 1633.4 61
1197.1 1622.6 61.1
1186.5 1610.5 61.2
1304.9 1301.8 115.6
1301.3 1295.8 121.9
1300.6 1290.4 128.3
1302.9 1285.4 134.7
1308.2 1280.8 141
1514.4 644.8 287.4
1511.9 659.8 288.1
1508.5 673.7 288.8
1504.3 686.4 289.5
1499.2 698.1 290.2
1493.4 708.6 290.9
1486.6 718 291.6
1479.1 726.4 292.3
1470.7 733.6 293
1461.5 739.7 293.7
1451.4 744.7 294.4
1440.5 748.6 295.1
1428.7 751.3 295.8
1416.1 753 296.5
1402.7 753.5 297.2
1388.4 753 297.9
1373.3 751.3 298.6
1529.8 637.3 285.7
1544.4 631.4 284.1
1558.3 627.3 282.5
1571.4 624.9 280.9
1583.8 624.1 279.3
1595.5 625.1 277.7
1606.5 627.8 276.1
1616.7 632.2 274.5
1626.1 638.3 272.9
1634.9 646.1 271.3
1642.8 655.7 269.7
1650.1 666.9 268.1
1656.6 679.8 266.5
1662.4 694.5 264.9
1667.5 710.8 263.3
572.1 892.6 127.1
578.3 882.3 130.9
585.6 874.5 134.7
594 869.1 138.5
603.5 866.2 142.3
614.2 865.7 146.1
626 867.7 150
638.9 872.1 153.8
564 916.3 116
559.4 925.2 108.8
553.6 931.8 101.6
546.4 936.2 94.3
537.8 938.3 87.1
527.9 938.2 79.9
516.6 935.9 72.7
1561.6 1044 218.2
1565.2 1038.3 208.6
1569 1033.6 199
1573.1 1029.9 189.4
1577.3 1027.3 179.8
1581.9 1025.7 170.2
1586.6 1025.1 160.5
1591.7 1025.6 150.9
[...]
POINT_DATA 2947
SCALARS pressure float 1
LOOKUP_TABLE default
25.30529
25.14619
24.99432
24.84745
24.70706
24.57178
24.4395
24.31089
24.1849
24.0593
23.93388
23.80793
23.67934
23.54666
23.41123
23.27059
23.1249
22.97154
22.81279
25.17807
25.06512
24.96367
24.87152
24.78427
24.69641
24.60412
24.50274
24.38964
24.26273
25.7648
26.18934
26.57863
26.93941
27.27394
27.59101
27.9007
28.21095
28.52978
28.86466
29.2263
29.61411
30.03761
30.49812
25.18106
25.06531
24.95745
24.85699
24.7634
24.6741
24.59044
24.50866
24.4288
24.34935
24.26812
24.18337
24.09488
24.00052
23.90018
23.7923
23.67698
23.55314
23.48935
23.57732
23.64375
23.71073
23.79814
23.37086
23.26127
23.1608
23.06782
22.98048
22.89757
22.81717
22.73642
22.65423
22.56689
22.47353
22.37331
22.26344
22.14484
16
17.28551
18.46318
19.55933
20.58711
21.57661
22.56124
23.59132
24.67881
25.86049
27.15177
16
16.26348
16.51115
16.7595
17.02526
20
20.23989
20.4616
20.66812
20.86336
21.04993
21.23176
21.41467
21.6015
21.79535
22.00253
22.22602
22.46467
32.3094
32.19524
32.09657
32.0084
31.92311
31.83497
31.73586
31.6224
32.42916
32.53872
32.63951
32.73465
32.82709
32.9186
33.01369
33.11513
33.2246
33.34397
31.56772
31.90919
32.23388
32.54523
32.84364
33.13081
33.40718
33.67679
33.94229
34.20468
34.46734
34.73228
35.00212
35.28089
35.56715
35.86457
36.17588
36.5005
36.84238
31.18195
30.85227
30.54832
30.21966
29.83174
35.21508
34.60564
34.05823
33.56991
33.12423
32.71502
32.32496
31.93384
31.52447
31.08106
30.58802
30.04008
29.43338
28.93157
28.52764
28.16655
27.76432
27.26394
26.97536
26.72167
26.49742
26.29852
26.11034
25.92229
25.72197
25.49876
25.24492
24.95664
25.17093
25.30169
25.42387
25.5385
25.64627
25.7479
25.84372
25.93558
26.02477
26.11229
26.19923
26.28822
26.38037
26.47656
26.57834
26.68537
26.80053
26.92311
27.05326
25.10412
25.04069
24.98003
24.92232
24.86715
24.81438
24.76303
24.71373
24.66511
24.61682
24.56896
24.52037
24.47051
24.41952
24.36671
24.31155
24.25407
24.1933
24.13004
24.06285
25.11181
25.05655
25.00466
24.95578
24.91026
24.86743
24.82653
24.78793
24.75037
24.71331
24.67656
24.63885
24.60004
24.55923
24.51647
24.47083
24.42219
24.3701
24.31478
24.25572
16
16.56415
17.03345
17.44102
17.82298
18.22805
18.70181
19.26212
20
19.99818
19.99662
19.99524
19.994
19.99281
19.99157
19.9902
19.98863
19.98681
29.87911
29.41685
28.98274
28.57117
28.18069
27.81082
27.45933
27.11884
26.78788
26.46114
26.13446
25.8014
25.46042
25.10986
24.7406
24.35105
23.93825
23.50268
23.0397
29.98458
30.08778
30.19118
30.29281
30.39515
30.49594
30.59684
30.69857
30.79992
30.90252
31.00491
31.10918
31.21366
29.59093
29.32532
29.07707
28.84405
28.62378
28.41019
28.19905
27.98557
27.76657
27.53416
27.2853
27.01892
26.7315
30.51317
31.11221
31.67832
32.21107
32.71432
33.18775
33.64062
34.07497
34.49447
34.90604
35.31338
35.72425
36.14249
36.57676
37.03274
37.50861
38.01004
38.54257
39.10494
39.70476
40.34235
50
49.05343
48.18183
47.36414
46.58651
45.81489
45.03933
44.22517
43.35312
42.41035
19.98479
19.98321
19.98182
19.98024
19.97821
17.5978
17.4978
17.40814
17.32524
17.24556
17.16347
17.07389
16.97331
34.33918
34.34772
34.35604
34.36429
34.37282
24.38958
24.28875
24.20347
24.12914
24.0589
23.9847
23.89897
24.43741
24.48126
24.52314
24.56409
24.60595
24.64985
24.69757
24.42567
24.46117
24.49568
24.52969
24.56341
24.59742
24.63143
24.66598
24.70121
24.73736
21.98381
21.81123
21.65448
21.51191
21.37996
21.25704
21.13786
21.01854
20.89549
20.76456
20.62133
20.46429
20.29148
22.28988
22.58008
22.85818
23.12541
23.38599
23.64149
23.89941
24.15877
24.42492
24.70325
24.99262
25.29968
22.10995
22.22971
22.34353
22.45271
22.55795
22.66014
22.76108
22.86126
22.96245
23.06459
23.17001
23.27903
23.3932
23.51225
23.63791
21.66063
21.36663
21.10196
20.86122
20.6329
20.41088
20.18382
19.94273
19.6777
19.38549
19.06084
19.94699
20.09139
20.22434
20.34811
20.46752
20.58365
20.70196
20.82657
20.95937
21.10414
20.60189
20.66908
20.72918
20.78408
20.83522
20.88525
20.93665
20.99125
21.05163
21.11894
20.76748
20.91965
21.06016
21.19036
21.31484
21.43449
21.55449
21.67813
21.80973
21.94887
22.10095
22.26726
20.37441
20.16894
19.97839
19.8023
19.63384
19.46423
19.28749
19.0981
18.89209
18.66403
22.62594
22.45082
22.2869
22.1326
21.98724
21.85025
21.72013
21.59655
21.4751
21.35746
21.23919
21.11819
20.99384
20.86448
20.72702
20.58236
20.42795
20.26383
20.08843
19.90199
19.22284
19.14981
19.08462
19.01915
18.94599
22.36479
22.24678
22.13572
22.03187
21.93278
21.83963
21.74953
21.66206
21.57612
21.49038
21.40284
21.31293
21.21893
21.12022
21.01612
20.90507
20.78714
22.49824
22.62094
22.73397
22.83796
22.93508
23.02696
23.11563
23.20264
23.29039
23.38239
23.47957
23.58395
23.69662
23.81975
23.95273
20.14568
20.32215
20.48087
20.63042
20.77928
20.93836
21.11456
21.31261
19.61295
19.30784
19.02692
18.75099
18.4688
18.16606
17.82985
17.98334
17.87613
17.77245
17.67123
17.57256
17.47417
17.37551
17.27605
17.17533
17.07167
16.96445
17.93303
17.8878
17.84742
17.81032
17.77471
17.73947
17.70234
17.66189
17.61652
17.56624
18.20743
18.38946
18.57306
18.79673
19.97671
19.9754
19.97421
19.97307
19.97188
19.97056
19.96907
22.575
22.63288
22.68482
22.73212
22.77522
22.81572
22.85517
22.89577
22.93881
22.98593
23.038
23.09571
22.5092
22.45037
22.3978
22.35047
22.30704
22.26582
22.22414
22.18081
22.13372
22.08097
22.02221
21.95638
24.67332
24.57276
24.4812
24.39515
24.31286
24.23047
24.14491
24.05284
24.57332
24.47927
24.39074
24.30558
24.22409
24.14386
24.06371
23.98199
23.89668
23.80835
23.71472
23.61434
25.58765
25.32934
25.12986
24.9318
20.4131
20.6317
20.83387
21.02052
21.19329
21.35422
21.50649
21.65423
21.80023
21.94765
22.10012
22.26137
22.43493
22.62007
22.82157
20.24741
20.08723
19.9332
19.7836
19.63976
19.50034
19.3656
19.23587
19.11037
18.98843
18.87026
18.75444
18.64191
18.53045
18.42166
18.31371
18.20719
18.09999
17.99138
17.88186
17.77244
17.65933
17.54369
17.42516
17.30342
17.17807
17.04752
16.91323
16.77452
16.63006
16.48067
16.32638
16.16584
16
21.18647
21.24979
21.30983
21.36747
21.42355
21.47849
21.53333
21.58932
21.64707
21.70728
21.77079
21.83787
20.26088
20.23248
20.20614
20.18133
20.15747
20.13398
20.1102
20.08533
20.05905
20.0307
20
20.17757
20.07341
19.97588
19.88444
19.79368
19.70211
19.60488
19.50083
19.38682
28.90785
30.47416
31.84992
33.08707
34.22654
35.32697
36.47169
37.70445
39.09208
40.6494
26.94288
26.75717
26.59129
26.43862
26.29033
26.13691
25.97081
25.78522
25.57585
27.12253
27.09323
27.06433
27.03524
27.00651
26.9775
26.94876
26.9197
26.8908
26.86147
26.83228
18.7361
18.73012
18.72462
18.71955
18.71487
18.71053
18.70638
18.70234
18.69833
18.69417
18.68982
18.68513
18.68008
18.67458
18.6686
18.74177
18.74697
18.75176
18.7562
18.76045
18.76455
18.76864
18.77286
18.77733
18.78213
18.78733
18.79297
34.91166
35.05779
35.19125
35.31466
35.42831
35.53324
35.63338
35.72807
35.82267
35.91721
36.01681
36.12234
36.23542
36.35867
36.49306
36.63839
34.78391
34.66718
34.56094
34.4635
34.37017
34.27843
34.1857
34.08761
33.98154
33.86531
33.73675
32.41313
32.30031
32.19544
32.09454
31.99818
31.90548
31.81353
31.72123
31.6284
31.53195
31.4319
31.32624
32.55209
32.67716
32.78945
32.89133
32.98508
33.07486
33.16415
33.25831
33.35986
33.47235
33.59772
15
15.30866
15.58533
15.8367
16.07573
16.3156
16.56722
16.84364
17.15374
35.69765
36.15825
36.6017
37.02961
37.44609
37.85204
38.25109
38.65219
39.05102
39.45992
39.87345
40.30077
40.74492
41.20457
41.68813
50
48.44033
46.98604
45.63974
44.38521
43.21563
42.11136
41.04683
40.007
38.97846
37.91498
36.80657
35.63318
34.37995
33.03715
31.58105
30.02264
27.16545
27.27423
27.3839
27.49624
15.80333
15.67711
15.56094
15.45411
15.34871
15.24136
15.12618
15
15.94171
16.05605
16.17052
16.30921
36.76609
36.88153
36.98656
37.08346
37.17661
37.26882
37.36588
37.47118
37.58605
37.71431
17.57619
18.04142
18.50721
18.96911
19.12045
19.25595
19.38279
19.50966
19.6452
19.7966
42.18906
42.5787
42.93172
43.25023
43.54107
43.80978
44.06851
44.32738
44.59637
44.88542
45.20513
45.55832
45.94704
18.83954
18.84473
18.84924
18.85327
18.8571
18.86112
18.86561
18.8708
18.83387
18.82881
18.82427
18.82017
18.81626
18.81233
18.8082
18.8037
18.79862
23.00345
22.96047
22.91892
22.87885
22.8398
22.8014
22.76354
22.72548
22.68713
22.64813
22.60801
22.56655
22.5233
23.0587
23.1093
23.15563
23.19802
23.2374
23.27474
23.31069
23.34675
23.38381
23.42315
23.4659
23.51206
23.56266
23.6179
20.84849
20.87874
20.9069
20.93343
20.95832
20.98212
21.00534
21.02872
21.05243
21.07729
21.10378
21.13201
21.16233
20.81259
20.77974
20.7495
20.72148
20.69552
20.67041
20.6457
20.62064
20.59448
20.56651
20.53635
20.50347
20.46762
34.80525
35.19659
35.55132
35.88278
36.2013
36.51805
36.85073
37.20471
37.59752
38.02569
38.34792
38.66061
38.969
39.2682
39.56104
39.84616
40.12669
40.40403
40.67109
40.93592
41.19269
41.4474
41.69515
41.9401
42.18026
42.416
42.65012
42.88366
43.1106
43.33786
43.56576
43.78793
44.01231
44.23755
44.46301
44.68758
44.91598
45.14454
45.37415
45.6086
45.84466
46.08694
46.331
46.57941
46.83288
47.0903
47.35571
47.62431
47.89778
48.1801
48.46642
48.75751
49.05809
49.365
49.67822
50
23.64095
23.73329
23.81727
23.89418
23.9654
24.03213
24.09625
24.16083
24.22798
24.29856
24.37575
24.45971
24.552
23.99899
24.60035
25.17099
25.71545
26.24311
26.75795
27.26547
27.77713
28.30256
28.84821
29.42063
23.46347
22.93861
22.41231
21.8925
21.36834
20.8434
20.32181
19.79161
21.27004
21.23749
21.20501
21.47378
21.60893
21.73293
21.86721
22.02782
21.40205
21.48754
21.56987
21.64982
21.72922
21.80811
21.88761
21.97029
22.05558
20.67276
20.56859
20.4733
20.3841
20.29987
20.21607
20.13203
20.04276
19.94699
19.84317
19.72903
26.46254
26.51414
26.56297
26.60918
26.65362
26.69667
26.73915
26.78161
26.82448
26.86887
26.91547
26.96403
27.0159
26.40851
26.35999
26.3155
26.27453
26.2359
26.19777
26.15882
26.11779
26.07352
26.02471
25.97106
25.26449
25.18966
25.11743
25.0463
24.97726
24.90804
24.83965
24.7698
24.69917
24.62652
25.1398
25.02115
24.9087
24.80158
24.69817
24.5981
24.5001
24.40285
24.30417
24.20438
24.10133
23.99381
23.88148
23.7631
25.47096
25.64363
25.81693
26.02258
23.14268
23.18828
23.23257
23.2763
23.31874
23.36057
23.40228
23.44339
23.48461
23.52622
23.56801
23.61053
23.65405
23.69836
23.74406
23.79139
17.05837
17.07206
17.08462
17.09634
17.10722
17.11752
17.12763
17.13767
17.14809
17.15897
17.17063
17.1832
17.19681
17.04427
17.03204
17.02133
17.01142
17.00153
16.9908
16.9786
24.94222
24.93304
24.92392
24.91504
24.90614
24.8974
24.88869
24.87991
24.87117
24.86229
24.85337
24.84435
24.83509
24.95314
24.96286
24.97156
24.97978
24.98794
24.99666
25.00638
25.01734
50
49.60281
49.23624
48.89426
48.5752
48.26977
47.97331
47.67513
47.36961
47.05119
46.70898
46.34305
22.82933
22.62051
22.41578
22.21379
22.01387
21.81623
21.61926
21.42253
21.22543
21.02735
20.82793
20.62544
20.42109
20.21251
20
50
49.31013
48.69113
48.14164
47.64138
47.17554
46.7214
46.25442
45.759
45.20527
44.58841
43.9
24.67432
24.42199
24.19712
23.99361
23.80319
23.61772
23.42851
23.22489
23.00011
22.74751
20
20.01526
20.02835
20.04128
20.05678
18.92051
18.92608
18.93097
18.93555
18.94041
18.91559
18.91159
18.90759
18.90266
42.98343
43.39038
43.73601
44.0406
44.3258
44.63032
44.97465
45.38194
42.60675
42.25846
41.93333
41.62027
41.31342
41.0027
40.67583
40.32737
39.9495
33.5924
32.87029
32.19824
31.56443
30.96656
30.3934
29.83241
29.27336
28.7024
28.1055
27.47659
26.80215
26.08011
34.22781
34.09934
33.98278
33.87413
33.7701
33.66149
33.54486
33.41563
33.27176
19.87567
19.97974
20.06962
20.14781
20.21969
20.29226
20.37036
20.46009
20.5647
19.78489
19.70297
19.62807
19.55796
19.48915
19.41906
19.34459
19.26217
19.17146
19.5454
19.69261
19.84019
20
19.08781
18.80633
18.5347
18.27011
18.00506
17.73558
17.45316
16
16.1768
16.34898
16.51508
16.68056
16.84846
17.01891
17.40378
17.58419
17.74644
17.89932
18.04988
18.21225
18.39482
18.59975
24.86026
24.45448
24.07908
23.72805
23.40287
23.09583
22.79638
22.50371
22.20359
21.89615
21.57097
21.22116
20.8462
20.43891
20
31.52518
31.43103
31.3385
31.24842
31.16038
31.07381
30.98943
30.9059
30.82409
30.74214
30.66095
30.57982
30.49907
30.41699
30.33446
30.25125
30.16657
30.08066
29.99281
29.90255
29.8107
29.71597
29.619
24.19896
24.14834
24.10329
24.06228
24.02352
23.98476
23.94375
23.89865
23.84833
16
16.26948
16.52866
16.78583
17.04128
17.29813
17.55998
16
16.17945
16.34527
16.50014
16.6446
16.78358
16.92075
17.05871
17.20414
17.35768
17.52427
17.70468
30.86636
31.22113
31.56113
31.89518
32.21899
32.53437
32.8479
33.15768
33.46891
33.78242
34.09878
34.42333
34.75445
35.09774
35.4511
35.81773
29.22267
29.29835
29.36816
29.4339
29.49683
29.55839
29.62132
29.68652
29.75617
20.68329
20.79185
20.8918
20.98281
21.06741
21.14712
21.22265
21.29771
21.37381
21.45285
21.53758
21.62901
21.72915
21.83758
24.70936
24.72033
24.73048
24.74008
24.74911
24.75783
24.76636
24.77481
24.78356
24.79262
24.80217
24.81233
24.82331
25.31849
25.88587
26.40434
26.89277
27.36093
27.82942
28.31618
28.83941
29.40199
24.10983
23.56946
23.06448
22.58563
22.11267
21.63373
21.1292
20.58904
20
15
15.26987
15.53283
15.79312
16.06363
16.74017
16.78991
16.8372
16.88206
16.92537
16.96837
17.01172
17.05679
17.1037
16.6746
16.61868
16.56956
16.52477
16.47989
16.43096
16.3746
23.50968
23.41591
23.33076
23.25078
23.17053
23.08567
22.99218
22.88692
16
16.01435
16.02629
16.03733
16.0493
50
49.33429
48.70823
48.12064
47.569
47.04804
46.55512
46.08218
45.62194
45.16887
44.71804
44.26005
43.78849
43.29315
42.77283
42.21926
41.63315
41.00677
26.6035
26.64023
26.67309
26.70332
26.73248
26.76277
26.79552
29.47252
29.34065
29.22275
29.11585
29.01667
28.92221
28.82836
28.72851
28.62219
28.50401
28.37199
28.22603
37.22219
37.53529
37.80408
38.05426
38.32416
38.6378
39.01699
50
49.7001
49.41086
49.12615
48.85004
48.57987
48.31747
48.06107
47.80857
47.56506
47.325
47.09335
46.86465
46.64214
46.42352
46.21045
46.00169
45.79432
45.59027
45.39124
45.19343
44.99663
44.80145
44.60649
44.4103
44.21771
44.02082
43.82407
43.62694
43.424
43.22255
43.01644
42.80565
42.59288
42.37391
42.15005
41.9247
41.68964
41.45121
41.20587
40.95575
40.7014
40.43602
40.16687
39.88927
39.60746
39.31548
18.87437
18.87792
18.88145
18.88498
18.8885
18.89202
18.89555
18.8991
16.84894
16.7399
16.63491
16.53285
16.43151
16.32941
16.2242
16.11579
16
27.61571
27.7206
27.81543
27.90631
28.00115
28.10641
25.5325
25.38311
25.26622
25.14975
25.00073
25.07445
25.13941
25.19753
25.25101
25.30257
25.35623
25.41432
25.47915
25.55278
26.58795
26.45912
26.34222
26.23491
26.13207
26.02905
25.92194
25.80459
25.67539
26.72217
26.45225
26.1991
25.96301
25.73771
25.5193
25.30027
25.07554
24.83985
24.58767
24.31616
24.02048
27.36437
27.6712
27.94445
28.19193
28.42394
28.65786
28.90424
29.17723
29.48486
20
20.00698
20.0132
20.01872
20.02369
20.0284
20.03314
20.03812
20.04362
20.0498
25.59725
25.6315
25.66579
25.71016
35.23916
35.39183
35.52812
35.66507
35.48615
35.72173
35.94956
36.17096
36.38602
36.60143
36.81466
37.0303
37.25182
37.47822
35.13328
34.85303
34.57405
34.22073
25.79892
25.86626
25.93417
15
15.3106
15.56839
15.7905
15.99595
16.21499
16.47437
16.78474
42.87712
43.3153
43.72787
44.11436
44.48067
44.82588
45.15395
45.46399
45.76463
46.0587
46.35043
46.64617
46.9463
47.25922
47.58484
47.92995
48.29485
48.68281
49.09587
49.53356
50
20.21648
20.22968
20.24222
20.25438
20.26609
20.27756
20.28889
20.3002
20.31167
20.32345
20.33561
20.3482
20.3614
20.44172
20.41832
20.3971
20.3776
20.35947
20.34196
20.32456
20.30633
20.28685
20.26572
20.24222
20.17324
20.13662
20.09999
18.81875
18.70381
18.59954
18.50335
18.41062
18.31768
18.22159
18.11684
18.00172
17.87488
20.47551
20.5783
20.67162
20.75854
20.84342
20.92999
21.023
21.12584
21.24038
20.25283
20.16131
20.08263
20.00838
19.92951
19.83822
19.7293
25.92152
25.87592
25.83373
25.79319
25.7536
25.71312
25.67101
25.62533
17.50949
17.45659
17.4067
17.35946
17.31435
17.26953
17.225
17.17947
17.1324
17.0826
17.02965
36.30505
36.75768
37.1821
37.58523
37.96774
38.34351
38.72031
39.10664
39.50579
39.9322
40.3861
40.87378
19.71136
19.55391
19.40908
19.25184
17.81323
17.82175
17.8296
17.83697
17.84411
17.85121
17.85859
17.86641
17.80161
17.7919
17.78294
17.77324
17.76161
22.00451
22.04939
22.09142
22.13087
22.16824
22.2046
22.23993
22.27546
22.3113
22.34887
22.38844
22.43049
22.47511
45.75367
46.10046
46.42263
46.7271
47.01528
47.28925
47.55843
47.82256
48.09174
48.36623
48.65418
48.95969
49.28329
49.6283
50
45.44468
45.50114
45.55218
45.59921
45.64295
45.68592
45.73015
45.77667
45.82782
45.88437
25.02882
25.03872
25.04754
25.05595
25.06478
25.07463
25.08613
19.07812
18.99614
18.92142
18.8499
18.77537
18.69297
38.007
38.2911
38.56413
38.8316
39.09888
39.37187
39.65291
33.86823
33.8555
33.84389
33.83344
33.82387
33.81501
33.80663
33.79836
33.79
33.7811
33.77151
33.76105
33.74946
50
49.50521
49.03527
48.5824
48.14975
47.73911
47.34142
46.95489
46.57936
46.21079
45.847
45.47945
45.1133
44.7354
44.34961
43.95282
43.53912
43.10632
42.65667
42.18229
41.52699
42.10781
42.66356
43.24354
40.57587
40.65908
40.72512
40.79113
21.36114
21.46845
21.56443
21.6517
21.7348
21.81784
21.90534
22.00172
22.10857
22.22907
22.06135
22.27039
22.46825
22.65701
22.8399
23.02011
23.20153
23.39135
23.58766
23.79746
23.97227
23.92907
23.89009
23.85374
23.81926
23.78452
23.74824
23.70907
23.66579
19.62733
19.52971
19.43552
19.34356
19.2535
19.16429
19.0752
18.98511
18.89327
18.79884
18.70124
25.28117
25.01295
24.76488
24.53716
24.32371
24.1217
23.91969
23.71741
23.50291
23.27534
23.02952
22.75915
18.66581
18.66348
18.66117
18.65835
16.41317
16.72045
16.99228
17.24347
17.48614
17.73654
18.01029
18.31556
20.37839
20.29593
20.21943
20.14805
20.08044
20.01598
19.95171
19.88676
19.81901
19.74766
19.67112
19.58867
19.49925
18.77488
18.87506
18.96583
19.04749
19.12347
19.19637
19.26971
19.3457
19.42736
19.51788
19.6183
16.77831
16.90839
17.0255
17.13184
17.23169
17.32706
17.42151
17.52116
17.62817
17.74471
16.65689
16.54407
16.43066
36.01429
35.9023
35.79387
35.69085
35.59163
35.49673
35.40528
35.31776
35.23406
35.15296
35.07506
34.99915
34.92575
34.85404
34.78328
34.7137
34.64424
34.57422
34.50439
34.43237
34.35897
34.28381
34.20579
34.12469
34.04073
33.95277
33.86175
33.76707
33.66741
33.5637
33.45649
21.6211
21.42592
21.24656
21.07915
20.91858
20.75711
20.59032
20.41127
20.21536
20
16.85474
16.74399
16.6388
16.53661
16.43602
16.33457
16.22921
16.11836
16
18.60506
18.60998
18.61461
18.61894
18.62307
18.62706
18.63103
18.63503
18.63915
18.6435
18.64811
18.65305
20
20.23292
20.45219
20.65845
20.8553
21.04644
21.23205
21.41909
21.60863
21.80649
22.01282
22.23114
17.88999
18.05849
18.20959
18.34996
18.48363
18.61769
18.75686
18.90847
19.07638
21.13163
20.97663
20.82663
20.67844
20.53186
20.38818
20.24359
20.09899
19.9528
19.80516
19.65424
17.71356
17.72423
17.7333
17.74184
17.75092
17.03023
17.26654
17.49321
17.71406
17.92801
18.14167
18.35485
18.57043
18.79156
19.01934
19.25265
25.22512
25.3494
25.46323
25.56971
25.67377
25.77959
25.894
26.01907
26.15808
26.30558
26.43563
26.55185
26.65945
26.76343
26.87017
26.9866
27.11733
22.72553
22.57551
22.43364
22.29912
22.16788
22.03718
21.90159
21.76068
21.61025
21.44947
21.2784
21.12188
20.97668
20.84091
20.70923
20.57785
20.44224
20.29761
20.14031
33.88111
33.89255
33.90287
33.91218
33.92083
33.92899
33.93725
33.94582
33.95512
33.96547
33.97696
33.9898
34.00071
34.01084
34.0201
34.02878
34.03703
34.04499
34.05301
34.06123
34.06991
34.07919
34.08931
34.10029
34.11097
34.12091
34.13003
34.13865
34.14677
34.1547
34.16261
34.17076
34.17929
34.18848
34.19838
34.20909
34.22189
34.23349
34.2439
34.25331
34.26196
34.2701
34.27812
34.2863
34.29497
34.30442
34.31482
34.32636
21.33261
21.51705
21.68677
21.84588
21.99642
22.14581
22.29744
22.45481
22.62431
22.80924
23.01006
23.23409
23.43533
23.6155
23.77928
23.931
24.08048
24.23287
24.39567
24.57633
24.7762
33.94655
33.69519
33.46394
33.24715
33.03942
32.83667
32.6296
32.4132
32.18131
31.92964
31.65624
31.37667
31.12238
30.89058
30.6745
30.47136
30.27467
30.07974
29.8766
29.66052
29.42723
29.1731
28.89353
28.60594